 Gaussian 09, Revision C.01,
 Gaussian 09:  AM64L-G09RevC.01 23-Sep-2011

 -------------------------------
 #p B3LYP/6-311+G** NMR=SPINSPIN
 -------------------------------

 (Enter /usr/g09/l101.exe)
 -----
 empty
 -----
 Charge =  0 Multiplicity = 1

                         Standard orientation:
 ---------------------------------------------------------------------
 Center     Atomic      Atomic             Coordinates (Angstroms)
 Number     Number       Type             X           Y           Z
 ---------------------------------------------------------------------
      1          1           0       -2.700076    2.544802    0.000000
      2          6           0       -1.658264    2.233370    0.000000
      3          6           0       -0.663323    3.155608    0.000000
      4          6           0       -1.375307    0.819137    0.000000
      5          6           0        0.723359    2.760337    0.000000
      6          1           0       -0.895016    4.217998    0.000000
      7          6           0        0.000000    0.384801    0.000000
      8          6           0       -2.385248   -0.126412    0.000000
      9          6           0        1.761526    3.697865    0.000000
     10          6           0        1.040838    1.365452    0.000000
     11          6           0        0.314656   -0.999307    0.000000
     12          1           0       -3.423110    0.200507    0.000000
     13          6           0       -2.111109   -1.513852    0.000000
     14          6           0        3.099756    3.289649    0.000000
     15          1           0        1.516917    4.757327    0.000000
     16          6           0        2.408140    0.959343    0.000000
     17          6           0       -0.751151   -1.971748    0.000000
     18          6           0        1.697540   -1.371558    0.000000
     19          6           0        3.421422    1.939638    0.000000
     20          1           0        3.890182    4.035256    0.000000
     21          6           0        2.696047   -0.439848    0.000000
     22          1           0        1.968273   -2.421396    0.000000
     23          1           0        4.461517    1.622831    0.000000
     24          1           0        3.736208   -0.756946    0.000000
     25          6           0       -0.526409   -3.374621    0.000000
     26          6           0       -3.168744   -2.465311    0.000000
     27          6           0       -1.572412   -4.272257    0.000000
     28          1           0       -1.366783   -5.339166    0.000000
     29          6           0       -2.910450   -3.815550    0.000000
     30          1           0       -3.728004   -4.531125    0.000000
     31          1           0        0.487360   -3.759569    0.000000
     32          1           0       -4.192673   -2.098933    0.000000
 ---------------------------------------------------------------------

 SCF Done:  E(RB3LYP) =  -769.590347105     A.U. after   14 cycles

      1  H    Isotropic =    23.6605   Anisotropy =     8.3492

      2  C    Isotropic =    48.8191   Anisotropy =   145.3002

      3  C    Isotropic =    49.2784   Anisotropy =   146.9947

      4  C    Isotropic =    47.1220   Anisotropy =   198.9087

      5  C    Isotropic =    44.8719   Anisotropy =   203.9986

      6  H    Isotropic =    23.7526   Anisotropy =     7.8725

      7  C    Isotropic =    53.7232   Anisotropy =   204.7104

      8  C    Isotropic =    52.9012   Anisotropy =   132.1743

      9  C    Isotropic =    53.3675   Anisotropy =   157.7374

     10  C    Isotropic =    52.0367   Anisotropy =   208.5604

     11  C    Isotropic =    49.6936   Anisotropy =   193.2270

     12  H    Isotropic =    23.1321   Anisotropy =    10.2864

     13  C    Isotropic =    45.6204   Anisotropy =   214.5112

     14  C    Isotropic =    51.9062   Anisotropy =   181.1689

     15  H    Isotropic =    23.5977   Anisotropy =     8.0124

     16  C    Isotropic =    45.5226   Anisotropy =   210.3134

     17  C    Isotropic =    48.8207   Anisotropy =   199.8034

     18  C    Isotropic =    55.7470   Anisotropy =   168.4401

     19  C    Isotropic =    52.6663   Anisotropy =   158.1597

     20  H    Isotropic =    23.6626   Anisotropy =     6.3489

     21  C    Isotropic =    50.1768   Anisotropy =   151.9394

     22  H    Isotropic =    22.4721   Anisotropy =    11.2923

     23  H    Isotropic =    23.4333   Anisotropy =     8.2235

     24  H    Isotropic =    23.3027   Anisotropy =     8.6430

     25  C    Isotropic =    54.7892   Anisotropy =   176.2708

     26  C    Isotropic =    48.2843   Anisotropy =   158.6380

     27  C    Isotropic =    52.0409   Anisotropy =   177.9104

     28  H    Isotropic =    23.8135   Anisotropy =     6.5712

     29  C    Isotropic =    51.9626   Anisotropy =   179.7711

     30  H    Isotropic =    23.8907   Anisotropy =     6.0603

     31  H    Isotropic =    22.4692   Anisotropy =    11.2294

     32  H    Isotropic =    23.3560   Anisotropy =     8.7374

 The electronic state is 1-A'.
 Alpha  occ. eigenvalues --  -10.19596 -10.19502 -10.19360 -10.19251 -10.19246
 Alpha  occ. eigenvalues --  -10.19227 -10.19201 -10.19148 -10.18434 -10.18404
 Alpha  occ. eigenvalues --  -10.18360 -10.18337 -10.18308 -10.18287 -10.18264
 Alpha  occ. eigenvalues --  -10.18240 -10.18240 -10.18217 -10.18216 -10.18159
 Alpha  occ. eigenvalues --   -0.90271  -0.87452  -0.84238  -0.83667  -0.79629
 Alpha  occ. eigenvalues --   -0.78117  -0.75672  -0.75427  -0.73358  -0.71087
 Alpha  occ. eigenvalues --   -0.65055  -0.63739  -0.63424  -0.61992  -0.60148
 Alpha  occ. eigenvalues --   -0.56863  -0.53776  -0.52874  -0.52083  -0.51107
 Alpha  occ. eigenvalues --   -0.48869  -0.47843  -0.47114  -0.45098  -0.44254
 Alpha  occ. eigenvalues --   -0.43662  -0.42564  -0.42280  -0.41973  -0.40645
 Alpha  occ. eigenvalues --   -0.40331  -0.39819  -0.38959  -0.38596  -0.36716
 Alpha  occ. eigenvalues --   -0.35449  -0.35286  -0.34555  -0.33823  -0.32569
 Alpha  occ. eigenvalues --   -0.30212  -0.28760  -0.26528  -0.25931  -0.23501
 Alpha  occ. eigenvalues --   -0.20024
 Alpha virt. eigenvalues --   -0.07776  -0.04790  -0.02676  -0.01817   0.00062
 Alpha virt. eigenvalues --    0.00500   0.00672   0.00824   0.01940   0.02204
 Alpha virt. eigenvalues --    0.02526   0.03576   0.03760   0.03850   0.04667

 Mulliken atomic charges:
              1
     1  H    0.114539
     2  C   -0.307243
     3  C   -0.309082
     4  C    0.451148
     5  C    0.342024
     6  H    0.117933
     7  C   -0.061254
     8  C    0.033240
     9  C   -0.131431
    10  C   -0.098214
    11  C    0.571163
    12  H    0.111999
    13  C    0.469149
    14  C   -0.380120
    15  H    0.118202
    16  C    0.383757
    17  C    0.386575
    18  C   -0.603556
    19  C   -0.226322
    20  H    0.125643
    21  C   -0.370916
    22  H    0.116304
    23  H    0.117792
    24  H    0.114647
    25  C   -0.420084
    26  C   -0.307259
    27  C   -0.563141
    28  H    0.124075
    29  C   -0.282724
    30  H    0.125895
    31  H    0.118463
    32  H    0.118798
 Sum of Mulliken atomic charges =   0.00000

 Dipole moment (field-independent basis, Debye):
    X=              0.0020    Y=             -0.0117    Z=              0.0000  Tot=              0.0119
 Quadrupole moment (field-independent basis, Debye-Ang):
   XX=           -100.7780   YY=           -100.6585   ZZ=           -124.3665
   XY=              0.1322   XZ=              0.0000   YZ=              0.0000

 1\1\GINC-BISHOP\SP\RB3LYP\6-311+G(d,p)\C20H12\JEANNERA\16-Sep-2013\0\\
 #p B3LYP/6-311+G** NMR=SPINSPIN\\empty\\0,1\H,0,-2.700076,-2.544802,0.
 \C,0,-1.658264,-2.23337,0.\C,0,-0.663323,-3.155608,0.\C,0,-1.375307,-0
 .819137,0.\C,0,0.723359,-2.760337,0.\H,0,-0.895016,-4.217998,0.\C,0,0.
 ,-0.384801,0.\C,0,-2.385248,0.126412,0.\C,0,1.761526,-3.697865,0.\C,0,
 1.040838,-1.365452,0.\C,0,0.314656,0.999307,0.\H,0,-3.42311,-0.200507,
 0.\C,0,-2.111109,1.513852,0.\C,0,3.099756,-3.289649,0.\H,0,1.516917,-4
 .757327,0.\C,0,2.40814,-0.959343,0.\C,0,-0.751151,1.971748,0.\C,0,1.69

 Normal termination of Gaussian 09 at Mon Sep 16 16:23:24 2013.
