 Gaussian 09, Revision D.01,
 Gaussian 09:  AS64L-G09RevD.01 24-Apr-2013

 -------------------------------
 #p B3LYP/6-311+G** NMR=SPINSPIN
 -------------------------------

 -----
 empty
 -----
 Symbolic Z-matrix:
 Charge =  0 Multiplicity = 1

                         Standard orientation:
 ---------------------------------------------------------------------
 Center     Atomic      Atomic             Coordinates (Angstroms)
 Number     Number       Type             X           Y           Z
 ---------------------------------------------------------------------
      1          1           0       -2.607672    3.538824   -0.295805
      2          6           0       -2.534515    2.456039   -0.229328
      3          6           0       -3.645287    1.677215   -0.327774
      4          6           0       -1.235996    1.875290   -0.069719
      5          6           0       -3.556264    0.262229   -0.137932
      6          1           0       -4.624888    2.120638   -0.488440
      7          6           0       -1.073723    0.465001   -0.046119
      8          6           0       -0.098518    2.717922    0.049833
      9          6           0       -4.733776   -0.520662   -0.079054
     10          6           0       -2.277889   -0.350447    0.072459
     11          6           0        0.272670   -0.062636   -0.140501
     12          6           0        1.160354    2.199288    0.174662
     13          6           0       -4.687876   -1.859298    0.250993
     14          1           0       -5.687306   -0.033705   -0.270190
     15          6           0       -2.281192   -1.707692    0.490755
     16          6           0        1.390232    0.800122    0.056819
     17          6           0       -3.449194   -2.443699    0.573395
     18          1           0       -5.601061   -2.445804    0.301982
     19          1           0       -3.407486   -3.476454    0.909016
     20          6           0        2.738558    0.253830    0.073473
     21          6           0        0.541344   -1.414974   -0.545004
     22          1           0       -1.356172   -2.171913    0.807012
     23          1           0       -0.279443   -2.035577   -0.878630
     24          6           0        1.808373   -1.914351   -0.607466
     25          6           0        2.939949   -1.120271   -0.251656
     26          1           0        1.974730   -2.933329   -0.948881
     27          6           0        4.247697   -1.661387   -0.251605
     28          6           0        3.880928    1.026171    0.401240
     29          6           0        5.338668   -0.881354    0.070845
     30          1           0        6.338111   -1.307572    0.072083
     31          6           0        5.147949    0.474209    0.404579
     32          1           0        6.002051    1.091324    0.670196
     33          1           0        4.376378   -2.710180   -0.509182
     34          1           0        3.770536    2.068543    0.679103
     35          1           0       -0.249927    3.794571    0.059669
     36          1           0        1.997197    2.877371    0.294703
 ---------------------------------------------------------------------

 SCF Done:  E(RB3LYP) =  -847.013344918     A.U. after   15 cycles

      1  H    Isotropic =    23.8106   Anisotropy =     7.8980

      2  C    Isotropic =    50.9013   Anisotropy =   148.1652

      3  C    Isotropic =    49.8833   Anisotropy =   150.9191

      4  C    Isotropic =    45.9027   Anisotropy =   204.9061

      5  C    Isotropic =    42.7155   Anisotropy =   210.6653

      6  H    Isotropic =    23.7890   Anisotropy =     7.6218

      7  C    Isotropic =    48.1143   Anisotropy =   186.7437

      8  C    Isotropic =    50.8997   Anisotropy =   150.3479

      9  C    Isotropic =    49.0291   Anisotropy =   158.5285

     10  C    Isotropic =    45.7135   Anisotropy =   199.0719

     11  C    Isotropic =    47.6736   Anisotropy =   196.1729

     12  C    Isotropic =    56.2024   Anisotropy =   170.0257

     13  C    Isotropic =    51.8189   Anisotropy =   179.7881

     14  H    Isotropic =    23.6363   Anisotropy =     7.7207

     15  C    Isotropic =    48.2604   Anisotropy =   176.5556

     16  C    Isotropic =    46.3194   Anisotropy =   195.0067

     17  C    Isotropic =    52.0978   Anisotropy =   177.2650

     18  H    Isotropic =    24.0460   Anisotropy =     5.4538

     19  H    Isotropic =    23.9574   Anisotropy =     6.6581

     20  C    Isotropic =    45.8847   Anisotropy =   198.1285

     21  C    Isotropic =    50.5843   Anisotropy =   167.7472

     22  H    Isotropic =    22.4610   Anisotropy =    12.8312

     23  H    Isotropic =    22.5242   Anisotropy =    12.8191

     24  C    Isotropic =    51.3597   Anisotropy =   150.3988

     25  C    Isotropic =    44.8834   Anisotropy =   211.1043

     26  H    Isotropic =    23.7085   Anisotropy =     8.5106

     27  C    Isotropic =    49.4282   Anisotropy =   159.7085

     28  C    Isotropic =    54.4444   Anisotropy =   176.5274

     29  C    Isotropic =    51.4327   Anisotropy =   180.1665

     30  H    Isotropic =    24.0402   Anisotropy =     5.6312

     31  C    Isotropic =    51.4143   Anisotropy =   178.3238

     32  H    Isotropic =    23.9543   Anisotropy =     6.1833

     33  H    Isotropic =    23.6806   Anisotropy =     7.9983

     34  H    Isotropic =    22.7259   Anisotropy =    10.7977

     35  H    Isotropic =    23.6105   Anisotropy =     8.3492

     36  H    Isotropic =    22.7298   Anisotropy =    10.8978

 The electronic state is 1-A.
 Alpha  occ. eigenvalues --  -10.19896 -10.19750 -10.19711 -10.19575 -10.19434
 Alpha  occ. eigenvalues --  -10.19217 -10.19185 -10.19015 -10.18274 -10.18243
 Alpha  occ. eigenvalues --  -10.18234 -10.18203 -10.18202 -10.18201 -10.18169
 Alpha  occ. eigenvalues --  -10.18166 -10.18140 -10.18115 -10.18101 -10.18097
 Alpha  occ. eigenvalues --  -10.18047 -10.18005  -0.89758  -0.87950  -0.85439
 Alpha  occ. eigenvalues --   -0.82833  -0.80873  -0.78752  -0.77443  -0.75140
 Alpha  occ. eigenvalues --   -0.74443  -0.72368  -0.72006  -0.64787  -0.64218
 Alpha  occ. eigenvalues --   -0.63313  -0.61584  -0.60824  -0.59192  -0.55460
 Alpha  occ. eigenvalues --   -0.53769  -0.53436  -0.51446  -0.50386  -0.49045
 Alpha  occ. eigenvalues --   -0.48229  -0.47288  -0.45457  -0.44339  -0.43880
 Alpha  occ. eigenvalues --   -0.43576  -0.43206  -0.42450  -0.41922  -0.40918
 Alpha  occ. eigenvalues --   -0.40602  -0.40124  -0.39639  -0.37882  -0.37151
 Alpha  occ. eigenvalues --   -0.36635  -0.35954  -0.34993  -0.34116  -0.32996
 Alpha  occ. eigenvalues --   -0.32663  -0.31689  -0.29500  -0.28232  -0.25852
 Alpha  occ. eigenvalues --   -0.24804  -0.21861  -0.21614
 Alpha virt. eigenvalues --   -0.06209  -0.06184  -0.03502  -0.02467  -0.00256
 Alpha virt. eigenvalues --    0.00086   0.00507   0.00612   0.01201   0.01805
 Alpha virt. eigenvalues --    0.01889   0.03169   0.03334   0.03791   0.04174

 Mulliken charges:
               1
     1  H    0.118991
     2  C   -0.347816
     3  C   -0.274406
     4  C    1.251347
     5  C    1.002304
     6  H    0.120266
     7  C   -0.114322
     8  C   -0.573914
     9  C    0.312417
    10  C    0.555994
    11  C    0.484452
    12  C   -0.667261
    13  C   -0.313292
    14  H    0.118635
    15  C   -1.181677
    16  C    0.724300
    17  C   -0.545993
    18  H    0.126346
    19  H    0.124156
    20  C    0.555647
    21  C   -1.136066
    22  H    0.161548
    23  H    0.159243
    24  C   -0.592148
    25  C    0.465001
    26  H    0.116389
    27  C   -0.202403
    28  C   -0.213133
    29  C   -0.383045
    30  H    0.126004
    31  C   -0.576420
    32  H    0.124466
    33  H    0.120277
    34  H    0.119606
    35  H    0.116537
    36  H    0.117968
 Sum of Mulliken charges =   0.00000

 Dipole moment (field-independent basis, Debye):
    X=             -0.0522    Y=              0.0665    Z=              0.0333  Tot=              0.0909
 Quadrupole moment (field-independent basis, Debye-Ang):
   XX=           -111.4681   YY=           -112.8175   ZZ=           -135.8904
   XY=             -0.1590   XZ=              1.5911   YZ=              0.9034

 1\1\GINC-GAMBIT\SP\RB3LYP\6-311+G(d,p)\C22H14\JEANNERA\30-Jul-2015\0\\
 #p B3LYP/6-311+G** NMR=SPINSPIN\\empty\\0,1\H,0,2.607672,3.538824,0.29
 5805\C,0,2.534515,2.456039,0.229328\C,0,3.645287,1.677215,0.327774\C,0
 ,1.235996,1.87529,0.069719\C,0,3.556264,0.262229,0.137932\H,0,4.624888
 ,2.120638,0.48844\C,0,1.073723,0.465001,0.046119\C,0,0.098518,2.717922
 ,-0.049833\C,0,4.733776,-0.520662,0.079054\C,0,2.277889,-0.350447,-0.0
 72459\C,0,-0.27267,-0.062636,0.140501\C,0,-1.160354,2.199288,-0.174662
 \C,0,4.687876,-1.859298,-0.250993\H,0,5.687306,-0.033705,0.27019\C,0,2

 Normal termination of Gaussian 09 at Thu Jul 30 13:22:32 2015.
