 Gaussian 03, Revision C.02,
 Gaussian 03:  AM64L-G03RevC.02 12-Jun-2004

 -------------------------------
 #p B3LYP/6-311+G** NMR=SPINSPIN
 -------------------------------

 -----
 empty
 -----
 Symbolic Z-matrix:
 Charge =  0 Multiplicity = 1

                         Standard orientation:
 ---------------------------------------------------------------------
 Center     Atomic     Atomic              Coordinates (Angstroms)
 Number     Number      Type              X           Y           Z
 ---------------------------------------------------------------------
    1          6             0        4.515349    0.006803   -0.625466
    2          6             0        3.587500    1.110614   -0.322767
    3          6             0        2.347790    0.948107    0.185783
    4          6             0        1.714610   -0.429448    0.413839
    5          6             0        2.514228   -1.509852   -0.363638
    6          6             0        4.035658   -1.380890   -0.233625
    7          1             0        3.988860    2.108488   -0.489567
    8          1             0        2.205419   -2.507736   -0.034539
    9          1             0        2.251767   -1.436537   -1.428143
   10          1             0        4.354221   -1.559153    0.803791
   11          1             0        4.556583   -2.119469   -0.851000
   12          6             0        1.763270   -0.737822    1.934340
   13          1             0        1.168458   -0.029858    2.519602
   14          1             0        1.387927   -1.744333    2.144858
   15          1             0        2.791459   -0.683536    2.306579
   16          6             0        0.235836   -0.407594   -0.136804
   17          1             0        0.337109   -0.259712   -1.225019
   18          6             0        1.533637    2.151626    0.595135
   19          6             0       -0.602552    0.808055    0.361369
   20          1             0       -0.709423    0.757148    1.455239
   21          6             0        0.111365    2.121566    0.017625
   22          1             0       -0.456535    2.978754    0.399287
   23          1             0        0.158974    2.234224   -1.075318
   24          6             0       -0.505494   -1.755509    0.057979
   25          1             0        0.059588   -2.559527   -0.425274
   26          1             0       -0.539890   -2.009946    1.123738
   27          6             0       -1.994573    0.727555   -0.278086
   28          1             0       -1.824743    0.703296   -1.369532
   29          6             0       -1.943410   -1.765779   -0.504437
   30          1             0       -1.912361   -1.694148   -1.600200
   31          1             0       -2.433249   -2.718136   -0.269748
   32          6             0       -2.744050   -0.584364    0.051017
   33          6             0       -3.053392   -0.778549    1.559337
   34          1             0       -3.630259    0.052203    1.979685
   35          1             0       -3.646639   -1.690160    1.689261
   36          1             0       -2.143086   -0.878889    2.156956
   37          6             0       -3.042279    1.837331   -0.046710
   38          1             0       -2.778822    2.775411   -0.544486
   39          1             0       -3.153601    2.059776    1.021309
   40          6             0       -4.333302    1.209901   -0.623558
   41          1             0       -5.247736    1.466116   -0.077588
   42          1             0       -4.501016    1.508478   -1.666000
   43          8             0        5.620058    0.206720   -1.111909
   44          8             0       -4.871741   -1.148581   -1.033850
   45          6             0       -4.104475   -0.315139   -0.603694
   46          1             0        2.054349    3.069975    0.302588
   47          1             0        1.461826    2.172493    1.693768
 ---------------------------------------------------------------------

 SCF Done:  E(RB+HF-LYP) =  -890.371281085     A.U. after   15 cycles

  1  C    Isotropic =   -19.4880   Anisotropy =   183.8712

  2  C    Isotropic =    51.3766   Anisotropy =    95.5380

  3  C    Isotropic =     4.0432   Anisotropy =   212.4225

  4  C    Isotropic =   137.5137   Anisotropy =    16.8772

  5  C    Isotropic =   141.7942   Anisotropy =    33.2145

  6  C    Isotropic =   145.7927   Anisotropy =    34.8460

  7  H    Isotropic =    26.1757   Anisotropy =     6.3759

  8  H    Isotropic =    29.9461   Anisotropy =     5.6930

  9  H    Isotropic =    30.2594   Anisotropy =     6.5318

 10  H    Isotropic =    29.5040   Anisotropy =     7.0047

 11  H    Isotropic =    29.6756   Anisotropy =     8.5670

 12  C    Isotropic =   163.9363   Anisotropy =    31.3705

 13  H    Isotropic =    30.6288   Anisotropy =     5.9273

 14  H    Isotropic =    30.8883   Anisotropy =     7.6270

 15  H    Isotropic =    30.6467   Anisotropy =     9.0593

 16  C    Isotropic =   122.5136   Anisotropy =    20.4959

 17  H    Isotropic =    31.0811   Anisotropy =     2.7441

 18  C    Isotropic =   145.1355   Anisotropy =    19.0996

 19  C    Isotropic =   142.1247   Anisotropy =     7.0585

 20  H    Isotropic =    30.1259   Anisotropy =     2.1313

 21  C    Isotropic =   146.7618   Anisotropy =    19.4289

 22  H    Isotropic =    29.9667   Anisotropy =     7.8483

 23  H    Isotropic =    30.7698   Anisotropy =     6.3367

 24  C    Isotropic =   158.1137   Anisotropy =    15.3704

 25  H    Isotropic =    30.3288   Anisotropy =     8.4166

 26  H    Isotropic =    30.4638   Anisotropy =     4.7852

 27  C    Isotropic =   126.8752   Anisotropy =    21.7669

 28  H    Isotropic =    30.6805   Anisotropy =     2.5677

 29  C    Isotropic =   146.7360   Anisotropy =    18.4111

 30  H    Isotropic =    30.6546   Anisotropy =     7.7806

 31  H    Isotropic =    30.0172   Anisotropy =     9.4003

 32  C    Isotropic =   129.6410   Anisotropy =    22.1687

 33  C    Isotropic =   168.2401   Anisotropy =    24.4595

 34  H    Isotropic =    31.0223   Anisotropy =     8.5682

 35  H    Isotropic =    31.3487   Anisotropy =    10.9008

 36  H    Isotropic =    30.7334   Anisotropy =     5.5388

 37  C    Isotropic =   157.4718   Anisotropy =    24.5588

 38  H    Isotropic =    30.0613   Anisotropy =     8.2043

 39  H    Isotropic =    30.3986   Anisotropy =     6.7908

 40  C    Isotropic =   143.0269   Anisotropy =    34.5883

 41  H    Isotropic =    29.4809   Anisotropy =     8.8748

 42  H    Isotropic =    29.8636   Anisotropy =     8.9154

 43  O    Isotropic =  -306.6568   Anisotropy =   951.2077

 44  O    Isotropic =  -287.4252   Anisotropy =   967.9925

 45  C    Isotropic =   -45.2160   Anisotropy =   162.0511

 46  H    Isotropic =    29.6272   Anisotropy =     9.2027

 47  H    Isotropic =    29.2992   Anisotropy =     6.3646

 The electronic state is 1-A.
 Alpha  occ. eigenvalues --  -19.12301 -19.10535 -10.26583 -10.25540 -10.21105
 Alpha  occ. eigenvalues --  -10.21024 -10.19700 -10.19417 -10.19152 -10.19072
 Alpha  occ. eigenvalues --  -10.19059 -10.18864 -10.18716 -10.18557 -10.18424
 Alpha  occ. eigenvalues --  -10.18114 -10.18113 -10.18012 -10.17992 -10.17912
 Alpha  occ. eigenvalues --  -10.17839  -1.05340  -1.03484  -0.88965  -0.86796
 Alpha  occ. eigenvalues --   -0.81664  -0.81185  -0.78601  -0.76445  -0.74691
 Alpha  occ. eigenvalues --   -0.73019  -0.70335  -0.68447  -0.67275  -0.65032
 Alpha  occ. eigenvalues --   -0.62800  -0.61553  -0.58703  -0.57016  -0.56337
 Alpha  occ. eigenvalues --   -0.52657  -0.51142  -0.49934  -0.49227  -0.48485
 Alpha  occ. eigenvalues --   -0.47997  -0.47299  -0.46584  -0.45784  -0.45167
 Alpha  occ. eigenvalues --   -0.43899  -0.43815  -0.42683  -0.42133  -0.41847
 Alpha  occ. eigenvalues --   -0.41448  -0.41101  -0.40834  -0.40190  -0.39875
 Alpha  occ. eigenvalues --   -0.39414  -0.38890  -0.37749  -0.37330  -0.36862
 Alpha  occ. eigenvalues --   -0.36644  -0.36061  -0.35263  -0.34853  -0.34690
 Alpha  occ. eigenvalues --   -0.33682  -0.33357  -0.33064  -0.31288  -0.30214
 Alpha  occ. eigenvalues --   -0.27035  -0.25051  -0.24786
 Alpha virt. eigenvalues --   -0.06188  -0.03550  -0.01323  -0.00556  -0.00349
 Alpha virt. eigenvalues --    0.00124   0.01557   0.01885   0.01980   0.02304
 Alpha virt. eigenvalues --    0.02579   0.03402   0.04094   0.04500   0.04543

 Mulliken atomic charges:
              1
     1  C   -0.071017
     2  C   -0.010335
     3  C    0.361807
     4  C    0.175508
     5  C   -0.163249
     6  C   -0.486310
     7  H    0.131609
     8  H    0.159393
     9  H    0.156846
    10  H    0.174677
    11  H    0.179895
    12  C   -0.689374
    13  H    0.154837
    14  H    0.159340
    15  H    0.165614
    16  C    0.026747
    17  H    0.161763
    18  C   -0.649358
    19  C   -0.107077
    20  H    0.142733
    21  C   -0.266729
    22  H    0.150280
    23  H    0.155893
    24  C   -0.422314
    25  H    0.157513
    26  H    0.145437
    27  C    0.059179
    28  H    0.160085
    29  C   -0.519872
    30  H    0.159770
    31  H    0.173910
    32  C    0.649683
    33  C   -0.669315
    34  H    0.157400
    35  H    0.173043
    36  H    0.154095
    37  C   -0.347719
    38  H    0.160654
    39  H    0.157143
    40  C   -0.475263
    41  H    0.186018
    42  H    0.186829
    43  O   -0.285665
    44  O   -0.258997
    45  C   -0.047821
    46  H    0.154271
    47  H    0.178442
 Sum of Mulliken charges=   0.00000

 Dipole moment (field-independent basis, Debye):
    X=    -2.3317    Y=     1.4571    Z=     3.0489  Tot=     4.1056
 Quadrupole moment (field-independent basis, Debye-Ang):
   XX=  -180.3587   YY=  -125.1342   ZZ=  -130.0062
   XY=   -14.8541   XZ=     3.2072   YZ=    -1.9230

 Normal termination of Gaussian 03 at Fri Sep 19 00:44:34 2014.
