 Gaussian 09, Revision C.01,
 Gaussian 09:  AM64L-G09RevC.01 23-Sep-2011

 -------------------------------
 #p B3LYP/6-311+G** NMR=SPINSPIN
 -------------------------------

 (Enter /usr/g09/l101.exe)
 -----
 empty
 -----
 Charge =  0 Multiplicity = 1

                         Standard orientation:
 ---------------------------------------------------------------------
 Center     Atomic      Atomic             Coordinates (Angstroms)
 Number     Number       Type             X           Y           Z
 ---------------------------------------------------------------------
      1          1           0       -0.605961    3.356047    0.229310
      2          6           0       -0.959449    2.333139    0.185535
      3          6           0       -2.288760    2.094149    0.288069
      4          6           0        0.009010    1.268163    0.055086
      5          6           0       -2.815651    0.766903    0.132780
      6          1           0       -2.988182    2.916170    0.421053
      7          6           0       -0.464782   -0.100661    0.087992
      8          6           0        1.377796    1.570634   -0.033063
      9          6           0       -4.208743    0.560003    0.060688
     10          6           0       -1.915474   -0.325675   -0.039552
     11          6           0        0.475447   -1.132235    0.264049
     12          6           0        2.318887    0.509034   -0.094697
     13          6           0       -4.733057   -0.684289   -0.242410
     14          1           0       -4.868068    1.410450    0.218815
     15          6           0       -2.483379   -1.562142   -0.425855
     16          6           0        1.861991   -0.844267    0.103345
     17          6           0       -3.856545   -1.742928   -0.518639
     18          1           0       -5.808229   -0.829383   -0.302091
     19          1           0       -4.248421   -2.709901   -0.822584
     20          6           0        2.835892   -1.890331    0.106459
     21          6           0        3.716920    0.720748   -0.306418
     22          6           0        4.170297   -1.641762   -0.099167
     23          1           0        4.881528   -2.463301   -0.110927
     24          6           0        4.616436   -0.315870   -0.311974
     25          1           0        5.670912   -0.118621   -0.485570
     26          1           0        2.511088   -2.915939    0.236342
     27          1           0        4.084773    1.723438   -0.488008
     28          1           0       -1.841409   -2.386120   -0.704746
     29          6           0        0.093873   -2.526898    0.725014
     30          1           0       -0.886068   -2.534848    1.203431
     31          1           0        0.077527   -3.271555   -0.082768
     32          1           0        0.815663   -2.880319    1.467758
     33          6           0        1.818579    3.021330   -0.045744
     34          1           0        1.413951    3.562143   -0.910111
     35          1           0        1.473693    3.546432    0.852971
     36          1           0        2.901459    3.133047   -0.071858
 ---------------------------------------------------------------------

 SCF Done:  E(RB3LYP) =  -771.973764617     A.U. after   15 cycles

      1  H    Isotropic =    23.6630   Anisotropy =    11.5681

      2  C    Isotropic =    53.7471   Anisotropy =   159.3687

      3  C    Isotropic =    50.5355   Anisotropy =   144.1956

      4  C    Isotropic =    47.2928   Anisotropy =   192.2856

      5  C    Isotropic =    43.0420   Anisotropy =   207.2475

      6  H    Isotropic =    24.0293   Anisotropy =     7.7405

      7  C    Isotropic =    47.6565   Anisotropy =   184.8831

      8  C    Isotropic =    48.4224   Anisotropy =   163.5844

      9  C    Isotropic =    49.9948   Anisotropy =   158.2687

     10  C    Isotropic =    44.7674   Anisotropy =   192.6681

     11  C    Isotropic =    46.0591   Anisotropy =   168.9970

     12  C    Isotropic =    47.0742   Anisotropy =   204.1519

     13  C    Isotropic =    51.6363   Anisotropy =   180.1042

     14  H    Isotropic =    23.8272   Anisotropy =     7.5476

     15  C    Isotropic =    46.3686   Anisotropy =   178.3436

     16  C    Isotropic =    44.0660   Anisotropy =   204.7171

     17  C    Isotropic =    53.6509   Anisotropy =   174.7714

     18  H    Isotropic =    24.1132   Anisotropy =     5.2722

     19  H    Isotropic =    24.0929   Anisotropy =     6.2966

     20  C    Isotropic =    51.7866   Anisotropy =   172.7283

     21  C    Isotropic =    52.7672   Anisotropy =   172.5990

     22  C    Isotropic =    52.8271   Anisotropy =   176.1349

     23  H    Isotropic =    24.0224   Anisotropy =     6.1597

     24  C    Isotropic =    52.9804   Anisotropy =   175.7608

     25  H    Isotropic =    24.0578   Anisotropy =     6.1136

     26  H    Isotropic =    23.2847   Anisotropy =    11.7356

     27  H    Isotropic =    23.2143   Anisotropy =    11.4428

     28  H    Isotropic =    23.1518   Anisotropy =    12.2576

     29  C    Isotropic =   159.7830   Anisotropy =    14.5236

     30  H    Isotropic =    28.3238   Anisotropy =     7.2727

     31  H    Isotropic =    28.3247   Anisotropy =     9.0460

     32  H    Isotropic =    28.7152   Anisotropy =     8.7310

     33  C    Isotropic =   167.4650   Anisotropy =    17.3897

     34  H    Isotropic =    28.9112   Anisotropy =     9.1896

     35  H    Isotropic =    28.9486   Anisotropy =     9.2766

     36  H    Isotropic =    28.4056   Anisotropy =     9.1761

 The electronic state is 1-A.
 Alpha  occ. eigenvalues --  -10.19295 -10.19263 -10.19057 -10.18925 -10.18841
 Alpha  occ. eigenvalues --  -10.18823 -10.18704 -10.18680 -10.17969 -10.17917
 Alpha  occ. eigenvalues --  -10.17891 -10.17875 -10.17842 -10.17841 -10.17808
 Alpha  occ. eigenvalues --  -10.17758 -10.17732 -10.17707 -10.17192 -10.16995
 Alpha  occ. eigenvalues --   -0.89115  -0.86936  -0.83701  -0.81272  -0.79983
 Alpha  occ. eigenvalues --   -0.76741  -0.75053  -0.73003  -0.72583  -0.72519
 Alpha  occ. eigenvalues --   -0.66332  -0.64472  -0.63144  -0.61338  -0.59877
 Alpha  occ. eigenvalues --   -0.56773  -0.55609  -0.52586  -0.51184  -0.50201
 Alpha  occ. eigenvalues --   -0.48383  -0.47199  -0.46001  -0.44565  -0.44377
 Alpha  occ. eigenvalues --   -0.43947  -0.43459  -0.42544  -0.41573  -0.41163
 Alpha  occ. eigenvalues --   -0.40880  -0.39772  -0.39267  -0.38675  -0.38317
 Alpha  occ. eigenvalues --   -0.37848  -0.37392  -0.35776  -0.34734  -0.34370
 Alpha  occ. eigenvalues --   -0.32739  -0.32492  -0.30537  -0.28451  -0.27023
 Alpha  occ. eigenvalues --   -0.25375  -0.22760  -0.20004
 Alpha virt. eigenvalues --   -0.07112  -0.04662  -0.01689  -0.00399  -0.00123
 Alpha virt. eigenvalues --    0.00686   0.00820   0.01886   0.02050   0.02220
 Alpha virt. eigenvalues --    0.03234   0.03379   0.03778   0.03981   0.04464

 Mulliken atomic charges:
              1
     1  H    0.133055
     2  C   -0.473240
     3  C   -0.537681
     4  C    0.713315
     5  C    0.326211
     6  H    0.115753
     7  C    0.178392
     8  C    0.207155
     9  C    0.043138
    10  C    0.259806
    11  C    0.430593
    12  C    0.423373
    13  C   -0.367186
    14  H    0.117652
    15  C   -0.521161
    16  C    0.581939
    17  C   -0.319513
    18  H    0.125645
    19  H    0.123118
    20  C   -0.536089
    21  C   -0.442180
    22  C   -0.551763
    23  H    0.122885
    24  C   -0.397418
    25  H    0.121930
    26  H    0.133730
    27  H    0.117208
    28  H    0.144243
    29  C   -0.769955
    30  H    0.178800
    31  H    0.171587
    32  H    0.155647
    33  C   -0.474140
    34  H    0.170265
    35  H    0.158947
    36  H    0.135941
 Sum of Mulliken atomic charges =   0.00000

 Dipole moment (field-independent basis, Debye):
    X=              0.0626    Y=              0.0829    Z=              0.0006  Tot=              0.1038
 Quadrupole moment (field-independent basis, Debye-Ang):
   XX=           -106.8319   YY=           -104.8463   ZZ=           -125.0576
   XY=              0.4856   XZ=             -0.5703   YZ=              0.6601

 1\1\GINC-BISHOP\SP\RB3LYP\6-311+G(d,p)\C20H16\JEANNERA\23-Sep-2013\0\\
 #p B3LYP/6-311+G** NMR=SPINSPIN\\empty\\0,1\H,0,0.605961,3.356047,-0.2
 2931\C,0,0.959449,2.333139,-0.185535\C,0,2.28876,2.094149,-0.288069\C,
 0,-0.00901,1.268163,-0.055086\C,0,2.815651,0.766903,-0.13278\H,0,2.988
 182,2.91617,-0.421053\C,0,0.464782,-0.100661,-0.087992\C,0,-1.377796,1
 .570634,0.033063\C,0,4.208743,0.560003,-0.060688\C,0,1.915474,-0.32567
 5,0.039552\C,0,-0.475447,-1.132235,-0.264049\C,0,-2.318887,0.509034,0.
 094697\C,0,4.733057,-0.684289,0.24241\H,0,4.868068,1.41045,-0.218815\C

 Normal termination of Gaussian 09 at Mon Sep 23 19:47:51 2013.
