 Gaussian 03, Revision C.02,
 Gaussian 03:  AM64L-G03RevC.02 12-Jun-2004

 -------------------------------
 #p B3LYP/6-311+G** NMR=SPINSPIN
 -------------------------------

 -----
 empty
 -----
 Symbolic Z-matrix:
 Charge =  0 Multiplicity = 1

                         Standard orientation:
 ---------------------------------------------------------------------
 Center     Atomic     Atomic              Coordinates (Angstroms)
 Number     Number      Type              X           Y           Z
 ---------------------------------------------------------------------
    1          1             0       -1.140054   -1.051966    0.886820
    2          6             0       -1.173400   -0.410580    0.000000
    3          1             0       -1.140054   -1.051966   -0.886820
    4          1             0       -2.122729    0.136564    0.000000
    5          6             0        0.000000    0.555061    0.000000
    6          1             0       -0.050889    1.207159   -0.887574
    7          1             0       -0.050889    1.207159    0.887574
    8          8             0        1.199660   -0.214433    0.000000
    9          1             0        1.947734    0.401631    0.000000
 ---------------------------------------------------------------------

 SCF Done:  E(RB+HF-LYP) =  -155.094908976     A.U. after   10 cycles

  1  H    Isotropic =    30.5170   Anisotropy =     7.4123

  2  C    Isotropic =   164.6479   Anisotropy =    27.5213

  3  H    Isotropic =    30.5170   Anisotropy =     7.4123

  4  H    Isotropic =    30.9466   Anisotropy =     8.6929

  5  C    Isotropic =   119.9051   Anisotropy =    64.0290

  6  H    Isotropic =    28.0738   Anisotropy =     6.4449

  7  H    Isotropic =    28.0738   Anisotropy =     6.4449

  8  O    Isotropic =   284.8281   Anisotropy =   120.0417

  9  H    Isotropic =    31.5626   Anisotropy =    18.0705

 The electronic state is 1-A'.
 Alpha  occ. eigenvalues --  -19.12587 -10.22061 -10.16121  -1.02547  -0.75241
 Alpha  occ. eigenvalues --   -0.61463  -0.52366  -0.46931  -0.40824  -0.38757
 Alpha  occ. eigenvalues --   -0.36970  -0.33995  -0.28070
 Alpha virt. eigenvalues --   -0.00245   0.02119   0.03609   0.04361   0.06899
 Alpha virt. eigenvalues --    0.07733   0.08064   0.12401   0.14123   0.15395
 Alpha virt. eigenvalues --    0.16529   0.17665   0.17702   0.21211   0.22547

 Mulliken atomic charges:
              1
     1  H    0.145114
     2  C   -0.387486
     3  H    0.145114
     4  H    0.131873
     5  C   -0.191982
     6  H    0.124311
     7  H    0.124311
     8  O   -0.335792
     9  H    0.244536
 Sum of Mulliken charges=   0.00000

 Dipole moment (field-independent basis, Debye):
    X=    -0.1570    Y=     1.7546    Z=     0.0000  Tot=     1.7616
 Quadrupole moment (field-independent basis, Debye-Ang):
   XX=   -18.1648   YY=   -20.3577   ZZ=   -20.5218
   XY=     2.6455   XZ=     0.0000   YZ=     0.0000

 1\1\GINC-BISHOP\SP\RB3LYP\6-311+G(d,p)\C2H6O1\JEANNERA\12-Mar-2009\0\\
 #P B3LYP/6-311+G** NMR=SPINSPIN\\empty\\0,1\H,0,-1.140054,-1.051966,0.
 88682\C,0,-1.1734,-0.41058,0.\H,0,-1.140054,-1.051966,-0.88682\H,0,-2.
 122729,0.136564,0.\C,0,0.,0.555061,0.\H,0,-0.050889,1.207159,-0.887574
 \H,0,-0.050889,1.207159,0.887574\O,0,1.19966,-0.214433,0.\H,0,1.947734
 ,0.401631,0.\\Version=AM64L-G03RevC.02\State=1-A'\HF=-155.094909\RMSD=
 8.915e-09\Dipole=-0.061772,0.6903228,0.\PG=CS [SG(C2H2O1),X(H4)]\\@

 Normal termination of Gaussian 03 at Thu Mar 12 08:58:24 2009.
