 Gaussian 03, Revision C.02,
 Gaussian 03:  AM64L-G03RevC.02 12-Jun-2004

 -------------------------------
 #p B3LYP/6-311+G** NMR=SPINSPIN
 -------------------------------

 -----
 empty
 -----
 Symbolic Z-matrix:
 Charge =  0 Multiplicity = 1

                         Standard orientation:
 ---------------------------------------------------------------------
 Center     Atomic     Atomic              Coordinates (Angstroms)
 Number     Number      Type              X           Y           Z
 ---------------------------------------------------------------------
    1          6             0       -0.245840    2.169456    0.124200
    2          6             0        0.626935    1.140390    0.870052
    3          8             0       -0.295247    0.300551    1.570527
    4          6             0       -1.606181    0.351016    0.960773
    5          6             0       -1.540752    1.383415   -0.172470
    6          6             0        1.456602    0.277644   -0.087017
    7          6             0       -1.953988   -1.072453    0.529183
    8          7             0       -3.347353   -1.087264    0.037757
    9          7             0       -3.722732   -2.142731   -0.478400
   10          7             0       -4.189216   -3.058489   -0.978580
   11          8             0        1.148752    0.070715   -1.252639
   12          8             0        2.518163   -0.249822    0.522162
   13          6             0        3.364191   -1.173322   -0.243144
   14          6             0        3.971430   -2.121665    0.779804
   15          6             0        4.394316   -0.368554   -1.026830
   16          1             0        4.594392   -1.575246    1.495982
   17          1             0        4.597967   -2.863468    0.273092
   18          1             0        3.189793   -2.650085    1.334090
   19          1             0        2.708182   -1.711387   -0.932672
   20          1             0        3.904038    0.299720   -1.740079
   21          1             0        5.047933   -1.046111   -1.587171
   22          1             0        5.015372    0.227356   -0.349217
   23          1             0       -1.432877    0.878771   -1.143756
   24          1             0       -1.841436   -1.742579    1.391479
   25          1             0       -1.255131   -1.398933   -0.252531
   26          1             0        1.292947    1.591902    1.610188
   27          1             0       -0.501582    2.975565    0.819605
   28          1             0       -2.324037    0.695489    1.713984
   29          8             0        0.341440    2.787216   -0.999629
   30          1             0       -0.330833    3.399814   -1.350717
   31          8             0       -2.701738    2.193158   -0.150559
   32          1             0       -2.740847    2.608482    0.726079
 ---------------------------------------------------------------------

 SCF Done:  E(RB+HF-LYP) =  -892.538352204     A.U. after   16 cycles

  1  C    Isotropic =    93.6443   Anisotropy =    36.9120

  2  C    Isotropic =   100.2893   Anisotropy =    36.1373

  3  O    Isotropic =   241.1850   Anisotropy =    85.0447

  4  C    Isotropic =    91.9237   Anisotropy =    55.8165

  5  C    Isotropic =    95.8159   Anisotropy =    21.1271

  6  C    Isotropic =     4.7468   Anisotropy =    97.9907

  7  C    Isotropic =   124.8422   Anisotropy =    49.2012

  8  N    Isotropic =   175.0121   Anisotropy =   222.9851

  9  N    Isotropic =   -15.0407   Anisotropy =   519.9388

 10  N    Isotropic =    18.7192   Anisotropy =   303.1231

 11  O    Isotropic =  -106.8671   Anisotropy =   609.5274

 12  O    Isotropic =    68.4133   Anisotropy =   134.8871

 13  C    Isotropic =   108.2456   Anisotropy =    66.5837

 14  C    Isotropic =   160.1305   Anisotropy =    35.9548

 15  C    Isotropic =   160.8227   Anisotropy =    36.3664

 16  H    Isotropic =    30.5319   Anisotropy =     6.8687

 17  H    Isotropic =    30.8103   Anisotropy =     9.3563

 18  H    Isotropic =    30.4970   Anisotropy =     8.1624

 19  H    Isotropic =    26.7984   Anisotropy =     2.5471

 20  H    Isotropic =    30.1287   Anisotropy =     6.6928

 21  H    Isotropic =    30.9355   Anisotropy =     9.5120

 22  H    Isotropic =    30.9363   Anisotropy =     6.9573

 23  H    Isotropic =    27.2763   Anisotropy =     1.8292

 24  H    Isotropic =    28.1930   Anisotropy =     3.9889

 25  H    Isotropic =    28.5174   Anisotropy =     6.0134

 26  H    Isotropic =    27.5260   Anisotropy =     5.1163

 27  H    Isotropic =    27.9059   Anisotropy =     3.3080

 28  H    Isotropic =    28.5326   Anisotropy =     3.7030

 29  O    Isotropic =   283.0011   Anisotropy =    54.2006

 30  H    Isotropic =    30.3342   Anisotropy =    16.5170

 31  O    Isotropic =   251.5558   Anisotropy =   124.4384

 32  H    Isotropic =    32.3323   Anisotropy =    14.3224

 The electronic state is 1-A.
 Alpha  occ. eigenvalues --  -19.18016 -19.15649 -19.14670 -19.14407 -19.12158
 Alpha  occ. eigenvalues --  -14.49344 -14.39218 -14.36996 -10.31321 -10.25793
 Alpha  occ. eigenvalues --  -10.25002 -10.24851 -10.24655 -10.24210 -10.23455
 Alpha  occ. eigenvalues --  -10.17674 -10.17370  -1.15084  -1.12071  -1.07664
 Alpha  occ. eigenvalues --   -1.05209  -1.04328  -1.02770  -0.99318  -0.82102
 Alpha  occ. eigenvalues --   -0.80679  -0.78661  -0.73270  -0.70774  -0.66638
 Alpha  occ. eigenvalues --   -0.63545  -0.61103  -0.57774  -0.56785  -0.55453
 Alpha  occ. eigenvalues --   -0.54644  -0.52947  -0.52288  -0.51166  -0.49561
 Alpha  occ. eigenvalues --   -0.48841  -0.47845  -0.47363  -0.46714  -0.46016
 Alpha  occ. eigenvalues --   -0.44890  -0.44228  -0.42222  -0.41554  -0.40944
 Alpha  occ. eigenvalues --   -0.40914  -0.40291  -0.39178  -0.38197  -0.37162
 Alpha  occ. eigenvalues --   -0.36314  -0.35222  -0.34764  -0.32153  -0.31914
 Alpha  occ. eigenvalues --   -0.31291  -0.31109  -0.27986  -0.27129  -0.26596
 Alpha virt. eigenvalues --   -0.04443  -0.02821  -0.01546  -0.00700  -0.00088
 Alpha virt. eigenvalues --    0.00650   0.01226   0.01714   0.02538   0.03000
 Alpha virt. eigenvalues --    0.03595   0.03894   0.04502   0.05170   0.05702

 Mulliken atomic charges:
              1
     1  C   -0.338845
     2  C    0.419004
     3  O   -0.020348
     4  C   -0.458288
     5  C   -0.201093
     6  C   -0.607231
     7  C   -0.175306
     8  N   -0.036965
     9  N    0.408706
    10  N   -0.280281
    11  O   -0.174143
    12  O    0.090552
    13  C   -0.081669
    14  C   -0.508191
    15  C   -0.303814
    16  H    0.152005
    17  H    0.147565
    18  H    0.149042
    19  H    0.171730
    20  H    0.171461
    21  H    0.144206
    22  H    0.149524
    23  H    0.235516
    24  H    0.184383
    25  H    0.177843
    26  H    0.184787
    27  H    0.151371
    28  H    0.177845
    29  O   -0.209879
    30  H    0.255355
    31  O   -0.196307
    32  H    0.221464
 Sum of Mulliken charges=   0.00000

 Dipole moment (field-independent basis, Debye):
    X=     2.7630    Y=     1.0377    Z=     2.4831  Tot=     3.8570
 Quadrupole moment (field-independent basis, Debye-Ang):
   XX=  -105.6614   YY=   -96.2189   ZZ=  -105.0604
   XY=   -11.6763   XZ=    -6.2092   YZ=     2.3173

 Normal termination of Gaussian 03 at Wed May  2 20:14:58 2012.
